Program Version,EnergyPlus, Version 22.1.0-08bd19528a, YMD=2022.02.07 07:52
1,5,Environment Title[],Latitude[deg],Longitude[deg],Time Zone[],Elevation[m]
2,8,Day of Simulation[],Month[],Day of Month[],DST Indicator[1=yes 0=no],Hour[],StartMinute[],EndMinute[],DayType
3,5,Cumulative Day of Simulation[],Month[],Day of Month[],DST Indicator[1=yes 0=no],DayType  ! When Daily Report Variables Requested
4,2,Cumulative Days of Simulation[],Month[]  ! When Monthly Report Variables Requested
5,1,Cumulative Days of Simulation[] ! When Run Period Report Variables Requested
6,1,Calendar Year of Simulation[] ! When Annual Report Variables Requested
7,9,Environment,Site Outdoor Air Drybulb Temperature [C] !Monthly [Value,Min,Day,Hour,Minute,Max,Day,Hour,Minute]
8,1,Environment,Site Outdoor Air Drybulb Temperature [C] !Hourly
9,9,WAINRIGHT_TZ,Zone People Sensible Heating Energy [J] !Monthly [Value,Min,Day,Hour,Minute,Max,Day,Hour,Minute]
131,9,WAINRIGHT_TZ,Zone Lights Total Heating Energy [J] !Monthly [Value,Min,Day,Hour,Minute,Max,Day,Hour,Minute]
205,9,WAINRIGHT_TZ WAINRIGHT_BASELINE_ELECTRICEQUIPMENT,Electric Equipment Total Heating Energy [J] !Monthly [Value,Min,Day,Hour,Minute,Max,Day,Hour,Minute]
243,1,STORAGE_CHARGE_30_KWH,Other Equipment Lost Heat Energy [J] !TimeStep
244,7,STORAGE_CHARGE_30_KWH,Other Equipment Lost Heat Energy [J] !Daily [Value,Min,Hour,Minute,Max,Hour,Minute]
245,9,STORAGE_CHARGE_30_KWH,Other Equipment Lost Heat Energy [J] !Monthly [Value,Min,Day,Hour,Minute,Max,Day,Hour,Minute]
246,1,STORAGE_CHARGE_30_KWH,Other Equipment Lost Heat Rate [W] !Hourly
247,7,STORAGE_CHARGE_30_KWH,Other Equipment Total Heating Energy [J] !Daily [Value,Min,Hour,Minute,Max,Hour,Minute]
248,9,STORAGE_CHARGE_30_KWH,Other Equipment Total Heating Energy [J] !Monthly [Value,Min,Day,Hour,Minute,Max,Day,Hour,Minute]
249,1,STORAGE_CHARGE_30_KWH,Other Equipment Total Heating Rate [W] !Hourly
250,7,STORAGE_DISCHARGE_30_KWH,Other Equipment Lost Heat Energy [J] !Daily [Value,Min,Hour,Minute,Max,Hour,Minute]
251,9,STORAGE_DISCHARGE_30_KWH,Other Equipment Lost Heat Energy [J] !Monthly [Value,Min,Day,Hour,Minute,Max,Day,Hour,Minute]
252,1,STORAGE_DISCHARGE_30_KWH,Other Equipment Lost Heat Rate [W] !Hourly
253,1,STORAGE_DISCHARGE_30_KWH,Other Equipment Total Heating Energy [J] !TimeStep
254,7,STORAGE_DISCHARGE_30_KWH,Other Equipment Total Heating Energy [J] !Daily [Value,Min,Hour,Minute,Max,Hour,Minute]
255,9,STORAGE_DISCHARGE_30_KWH,Other Equipment Total Heating Energy [J] !Monthly [Value,Min,Day,Hour,Minute,Max,Day,Hour,Minute]
256,1,STORAGE_DISCHARGE_30_KWH,Other Equipment Total Heating Rate [W] !Hourly
257,1,EMS,added_storage_capacity_ZoneTimeStep [J] !TimeStep
258,1,EMS,current_storage_capacity_ZoneTimeStep [J] !TimeStep
259,1,EMS,removed_storage_capacity_ZoneTimeStep [J] !TimeStep
260,9,FACE 23,Surface Window Heat Gain Energy [J] !Monthly [Value,Min,Day,Hour,Minute,Max,Day,Hour,Minute]
261,9,FACE 23,Surface Window Heat Loss Energy [J] !Monthly [Value,Min,Day,Hour,Minute,Max,Day,Hour,Minute]
262,9,FACE 24,Surface Window Heat Gain Energy [J] !Monthly [Value,Min,Day,Hour,Minute,Max,Day,Hour,Minute]
263,9,FACE 24,Surface Window Heat Loss Energy [J] !Monthly [Value,Min,Day,Hour,Minute,Max,Day,Hour,Minute]
264,9,FACE 37,Surface Window Heat Gain Energy [J] !Monthly [Value,Min,Day,Hour,Minute,Max,Day,Hour,Minute]
265,9,FACE 37,Surface Window Heat Loss Energy [J] !Monthly [Value,Min,Day,Hour,Minute,Max,Day,Hour,Minute]
266,9,FACE 38,Surface Window Heat Gain Energy [J] !Monthly [Value,Min,Day,Hour,Minute,Max,Day,Hour,Minute]
267,9,FACE 38,Surface Window Heat Loss Energy [J] !Monthly [Value,Min,Day,Hour,Minute,Max,Day,Hour,Minute]
268,9,FACE 46,Surface Window Heat Gain Energy [J] !Monthly [Value,Min,Day,Hour,Minute,Max,Day,Hour,Minute]
269,9,FACE 46,Surface Window Heat Loss Energy [J] !Monthly [Value,Min,Day,Hour,Minute,Max,Day,Hour,Minute]
270,9,FACE 52,Surface Window Heat Gain Energy [J] !Monthly [Value,Min,Day,Hour,Minute,Max,Day,Hour,Minute]
271,9,FACE 52,Surface Window Heat Loss Energy [J] !Monthly [Value,Min,Day,Hour,Minute,Max,Day,Hour,Minute]
272,1,FACE 11,Surface Average Face Conduction Heat Transfer Energy [J] !Hourly
273,1,FACE 14,Surface Average Face Conduction Heat Transfer Energy [J] !Hourly
274,1,FACE 17,Surface Average Face Conduction Heat Transfer Energy [J] !Hourly
275,1,FACE 22,Surface Average Face Conduction Heat Transfer Energy [J] !Hourly
276,1,FACE 31,Surface Average Face Conduction Heat Transfer Energy [J] !Hourly
277,1,FACE 36,Surface Average Face Conduction Heat Transfer Energy [J] !Hourly
278,1,FACE 4,Surface Average Face Conduction Heat Transfer Energy [J] !Hourly
279,1,FACE 44,Surface Average Face Conduction Heat Transfer Energy [J] !Hourly
280,1,FACE 45,Surface Average Face Conduction Heat Transfer Energy [J] !Hourly
281,1,FACE 5,Surface Average Face Conduction Heat Transfer Energy [J] !Hourly
282,1,FACE 51,Surface Average Face Conduction Heat Transfer Energy [J] !Hourly
283,1,FACE 59,Surface Average Face Conduction Heat Transfer Energy [J] !Hourly
284,1,FACE 60,Surface Average Face Conduction Heat Transfer Energy [J] !Hourly
285,1,SURFACE 5,Surface Average Face Conduction Heat Transfer Energy [J] !Hourly
286,1,SURFACE 7,Surface Average Face Conduction Heat Transfer Energy [J] !Hourly
287,1,FACE 0,Surface Average Face Conduction Heat Transfer Energy [J] !Hourly
288,1,FACE 12,Surface Average Face Conduction Heat Transfer Energy [J] !Hourly
289,1,FACE 18,Surface Average Face Conduction Heat Transfer Energy [J] !Hourly
290,1,FACE 27,Surface Average Face Conduction Heat Transfer Energy [J] !Hourly
291,1,FACE 41,Surface Average Face Conduction Heat Transfer Energy [J] !Hourly
292,1,FACE 48,Surface Average Face Conduction Heat Transfer Energy [J] !Hourly
293,1,FACE 55,Surface Average Face Conduction Heat Transfer Energy [J] !Hourly
294,1,FACE 6,Surface Average Face Conduction Heat Transfer Energy [J] !Hourly
295,1,SURFACE 2,Surface Average Face Conduction Heat Transfer Energy [J] !Hourly
296,1,SURFACE 3,Surface Average Face Conduction Heat Transfer Energy [J] !Hourly
297,1,MERGED FACE 1 - SURFACE 12,Surface Average Face Conduction Heat Transfer Energy [J] !Hourly
298,1,MERGED FACE 10 - FACE 2,Surface Average Face Conduction Heat Transfer Energy [J] !Hourly
299,1,MERGED FACE 13 - SURFACE 9,Surface Average Face Conduction Heat Transfer Energy [J] !Hourly
300,1,MERGED FACE 15 - FACE 35,Surface Average Face Conduction Heat Transfer Energy [J] !Hourly
301,1,MERGED FACE 16 - FACE 8,Surface Average Face Conduction Heat Transfer Energy [J] !Hourly
302,1,MERGED FACE 19 - SURFACE 13,Surface Average Face Conduction Heat Transfer Energy [J] !Hourly
303,1,MERGED FACE 20 - FACE 33,Surface Average Face Conduction Heat Transfer Energy [J] !Hourly
304,1,MERGED FACE 21 - FACE 32,Surface Average Face Conduction Heat Transfer Energy [J] !Hourly
305,1,MERGED FACE 26 - FACE 3,Surface Average Face Conduction Heat Transfer Energy [J] !Hourly
306,1,MERGED FACE 28 - SURFACE 14,Surface Average Face Conduction Heat Transfer Energy [J] !Hourly
307,1,MERGED FACE 29 - FACE 54,Surface Average Face Conduction Heat Transfer Energy [J] !Hourly
308,1,MERGED FACE 30 - FACE 47,Surface Average Face Conduction Heat Transfer Energy [J] !Hourly
309,1,MERGED FACE 34 - FACE 9,Surface Average Face Conduction Heat Transfer Energy [J] !Hourly
310,1,MERGED FACE 40 - FACE 58,Surface Average Face Conduction Heat Transfer Energy [J] !Hourly
311,1,MERGED FACE 42 - SURFACE 11,Surface Average Face Conduction Heat Transfer Energy [J] !Hourly
312,1,MERGED FACE 43 - FACE 53,Surface Average Face Conduction Heat Transfer Energy [J] !Hourly
313,1,MERGED FACE 49 - SURFACE 8,Surface Average Face Conduction Heat Transfer Energy [J] !Hourly
314,1,MERGED FACE 50 - FACE 57,Surface Average Face Conduction Heat Transfer Energy [J] !Hourly
315,1,MERGED FACE 56 - SURFACE 1,Surface Average Face Conduction Heat Transfer Energy [J] !Hourly
316,1,MERGED FACE 7 - SURFACE 10,Surface Average Face Conduction Heat Transfer Energy [J] !Hourly
317,1,FACE 25,Surface Average Face Conduction Heat Transfer Energy [J] !Hourly
318,1,FACE 39,Surface Average Face Conduction Heat Transfer Energy [J] !Hourly
319,9,WAINRIGHT_TZ,Zone Infiltration Sensible Heat Loss Energy [J] !Monthly [Value,Min,Day,Hour,Minute,Max,Day,Hour,Minute]
320,9,WAINRIGHT_TZ,Zone Infiltration Sensible Heat Gain Energy [J] !Monthly [Value,Min,Day,Hour,Minute,Max,Day,Hour,Minute]
321,1,WAINRIGHT_TZ,Zone Ventilation Sensible Heat Loss Energy [J] !Hourly
322,1,WAINRIGHT_TZ,Zone Ventilation Sensible Heat Gain Energy [J] !Hourly
323,1,WAINRIGHT_TZ,Zone Ventilation Standard Density Volume Flow Rate [m3/s] !Hourly
507,1,WAINRIGHT_TZ,Zone Air Temperature [C] !Hourly
508,1,WAINRIGHT_TZ,Zone Air Relative Humidity [%] !Hourly
509,1,WAINRIGHT_TZ,Zone Predicted Sensible Load to Setpoint Heat Transfer Rate [W] !Hourly
510,1,WAINRIGHT_TZ,Zone Predicted Sensible Load to Heating Setpoint Heat Transfer Rate [W] !Hourly
511,1,WAINRIGHT_TZ,Zone Thermostat Heating Setpoint Temperature [C] !Hourly
512,1,WAINRIGHT_TZ,Zone Thermostat Cooling Setpoint Temperature [C] !Hourly
709,1,WAINRIGHT_TZ,Zone Heating Setpoint Not Met While Occupied Time [hr] !Hourly
710,1,WAINRIGHT_TZ,Zone Cooling Setpoint Not Met While Occupied Time [hr] !Hourly
711,1,ELECSTORAGEHEATERMODESCHEDULE,Schedule Value [] !Hourly
712,1,ELECSTORAGEHEATERMODESCHEDULE,Schedule Value [] !TimeStep
713,1,ELECSTORAGEHEATERCHARGESCHEDULE,Schedule Value [] !TimeStep
714,1,ELECSTORAGEHEATERDISCHARGESCHEDULE,Schedule Value [] !TimeStep
740,1,TOYO_STOVE_LASER72_60000.0BTU/HR,Zone Unit Heater Heating Rate [W] !Hourly
741,7,TOYO_STOVE_LASER72_60000.0BTU/HR,Zone Unit Heater Heating Energy [J] !Daily [Value,Min,Hour,Minute,Max,Hour,Minute]
816,1,TOYO_STOVE_LASER72_60000.0BTU_HEATINGCOIL,Heating Coil FuelOilNo1 Rate [W] !Hourly
842,1,TOYO_STOVE_LASER72_60000.0BTU_HEATINGCOIL,Heating Coil Electricity Rate [W] !Hourly
11,1,Electricity:Facility [J] !TimeStep
End of Data Dictionary
1,SIZING PERIOD DESIGN DAY 1,  33.83,-118.17,  -8.00,   8.00
2,1, 7,21, 0, 1, 0.00,10.00,SummerDesignDay
243,0.0
253,0.0
257,0.0
258,0.0
259,0.0
712,0.0
713,0.0
714,0.0
11,4358208.032702822
2,1, 7,21, 0, 1,10.00,20.00,SummerDesignDay
243,0.0
253,0.0
257,0.0
258,0.0
259,0.0
712,0.0
713,0.0
714,0.0
11,4358208.032702822
2,1, 7,21, 0, 1,20.00,30.00,SummerDesignDay
243,0.0
253,0.0
257,0.0
258,0.0
259,0.0
712,0.0
713,0.0
714,0.0
11,4358208.032702822
2,1, 7,21, 0, 1,30.00,40.00,SummerDesignDay
243,0.0
253,0.0
257,0.0
258,0.0
259,0.0
712,0.0
713,0.0
714,0.0
11,4358208.032702822
2,1, 7,21, 0, 1,40.00,50.00,SummerDesignDay
243,0.0
253,0.0
257,0.0
258,0.0
259,0.0
712,0.0
713,0.0
714,0.0
11,4358208.032702822
2,1, 7,21, 0, 1,50.00,60.00,SummerDesignDay
243,0.0
253,0.0
257,0.0
258,0.0
259,0.0
712,0.0
713,0.0
714,0.0
11,4358208.032702822
2,1, 7,21, 0, 1, 0.00,60.00,SummerDesignDay
8,8.629499999999998
246,0.0
249,0.0
252,0.0
256,0.0
272,-341074.49514059233
273,-340740.38501818234
274,-341074.4951406079
275,-734207.0999064028
276,-136422.56306148003
277,-869822.9343986507
278,-341056.4076537077
279,-340544.86699073395
280,-299464.15252852236
281,-341074.49514059216
282,-299014.99554539914
283,-340740.3850181776
284,-340544.8669907329
285,-255548.71359065064
286,-254992.49812063592
287,-190844.22651486952
288,-190844.22651501087
289,-496194.9889395997
290,-1221403.049689666
291,-190844.2265144265
292,-190844.2265145968
293,-190844.22651513576
294,-190844.22651508276
295,-1422805.4492085464
296,-1405535.5030333668
297,7780.47502075983
298,10485.880787365402
299,7780.4750207596635
300,10485.880787365391
301,10485.880787365402
302,20314.79677223658
303,27281.28304372448
304,10485.880787365402
305,10485.880787365402
306,50552.06651251774
307,10485.880787365391
308,10485.880787365402
309,10485.880787365391
310,10485.880787365391
311,7780.47502075983
312,10485.880787365391
313,7780.4750207596635
314,10485.880787365391
315,7780.475020759823
316,7780.4750207596635
317,-414993.3884302294
318,-417856.7604863215
709,0.0
710,0.0
711,0.0
321,0.0
322,0.0
323,0.0
507,48.04809296955295
508,15.97987928147114
509,-73739.14599292194
510,-82217.52428427651
511,21.1111111111111
512,23.8888888888889
740,0.0
816,0.0
842,0.0
2,1, 7,21, 0, 2, 0.00,10.00,SummerDesignDay
243,0.0
253,0.0
257,0.0
258,0.0
259,0.0
712,0.0
713,0.0
714,0.0
11,4358208.032702822
2,1, 7,21, 0, 2,10.00,20.00,SummerDesignDay
243,0.0
253,0.0
257,0.0
258,0.0
259,0.0
712,0.0
713,0.0
714,0.0
11,4358208.032702822
2,1, 7,21, 0, 2,20.00,30.00,SummerDesignDay
243,0.0
253,0.0
257,0.0
258,0.0
259,0.0
712,0.0
713,0.0
714,0.0
11,4358208.032702822
2,1, 7,21, 0, 2,30.00,40.00,SummerDesignDay
243,0.0
253,0.0
257,0.0
258,0.0
259,0.0
712,0.0
713,0.0
714,0.0
11,4358208.032702822
2,1, 7,21, 0, 2,40.00,50.00,SummerDesignDay
243,0.0
253,0.0
257,0.0
258,0.0
259,0.0
712,0.0
713,0.0
714,0.0
11,4358208.032702822
2,1, 7,21, 0, 2,50.00,60.00,SummerDesignDay
243,0.0
253,0.0
257,0.0
258,0.0
259,0.0
712,0.0
713,0.0
714,0.0
11,4358208.032702822
2,1, 7,21, 0, 2, 0.00,60.00,SummerDesignDay
8,8.286333333333333
246,0.0
249,0.0
252,0.0
256,0.0
272,-336112.19419248257
273,-335551.2286875428
274,-336112.19419248385
275,-724000.6831483291
276,-134526.1151456932
277,-856576.3472231119
278,-336315.28786423674
279,-335359.02935082273
280,-295301.21787650994
281,-336112.1941924732
282,-294461.5771393132
283,-335551.2286875401
284,-335359.02935081953
285,-251757.50739665583
286,-251013.11380087922
287,-184663.01338393567
288,-184663.0133840502
289,-480123.8348000945
290,-1181843.2856536799
291,-184663.01338340837
292,-184663.01338370607
293,-184663.01338469653
294,-184663.0133841352
295,-1424095.04562434
296,-1405529.4456907709
297,11267.405355799241
298,11177.588019447081
299,11267.405355799468
300,11177.588019447068
301,11177.588019447081
302,29371.979903981453
303,29069.976888578887
304,11177.588019447081
305,11177.588019447081
306,72790.10422844911
307,11177.588019447068
308,11177.588019447081
309,11177.588019447068
310,11177.588019447068
311,11267.405355799241
312,11177.588019447068
313,11267.405355799468
314,11177.588019447068
315,11267.40535579923
316,11267.405355799468
317,-416488.21036978014
318,-419367.04073004134
709,0.0
710,0.0
711,0.0
321,0.0
322,0.0
323,0.0
507,47.87328410888525
508,13.436599996019567
509,-73157.84559130711
510,-81630.69603073307
511,21.1111111111111
512,23.8888888888889
740,0.0
816,0.0
842,0.0
2,1, 7,21, 0, 3, 0.00,10.00,SummerDesignDay
243,0.0
253,0.0
257,0.0
258,0.0
259,0.0
712,0.0
713,0.0
714,0.0
11,4358208.032702822
2,1, 7,21, 0, 3,10.00,20.00,SummerDesignDay
243,0.0
253,0.0
257,0.0
258,0.0
259,0.0
712,0.0
713,0.0
714,0.0
11,4358208.032702822
2,1, 7,21, 0, 3,20.00,30.00,SummerDesignDay
243,0.0
253,0.0
257,0.0
258,0.0
259,0.0
712,0.0
713,0.0
714,0.0
11,4358208.032702822
2,1, 7,21, 0, 3,30.00,40.00,SummerDesignDay
243,0.0
253,0.0
257,0.0
258,0.0
259,0.0
712,0.0
713,0.0
714,0.0
11,4358208.032702822
2,1, 7,21, 0, 3,40.00,50.00,SummerDesignDay
243,0.0
253,0.0
257,0.0
258,0.0
259,0.0
712,0.0
713,0.0
714,0.0
11,4358208.032702822
2,1, 7,21, 0, 3,50.00,60.00,SummerDesignDay
243,0.0
253,0.0
257,0.0
258,0.0
259,0.0
712,0.0
713,0.0
714,0.0
11,4358208.032702822
2,1, 7,21, 0, 3, 0.00,60.00,SummerDesignDay
8,8.04375
246,0.0
249,0.0
252,0.0
256,0.0
272,-332274.3066251902
273,-331694.89149225043
274,-332274.306625197
275,-715884.378117489
276,-133018.02957957573
277,-846732.1059634873
278,-332545.07394893037
279,-331505.6958458163
280,-291990.78607710253
281,-332274.30662518763
282,-291078.1623563444
283,-331694.89149226004
284,-331505.69584581733
285,-248885.77101358527
286,-248140.21582421154
287,-178064.1428165983
288,-178064.1428164648
289,-462966.77132464317
290,-1139610.5140238735
291,-178064.1428160992
292,-178064.14281627187
293,-178064.14281744976
294,-178064.14281668802
295,-1421960.873088094
296,-1402636.917753099
297,13401.761858876418
298,11730.482676419433
299,13401.761858876325
300,11730.48267641942
301,11730.482676419748
302,34904.832900737885
303,30506.17671896465
304,11730.482676419748
305,11730.482676419433
306,86303.25189896156
307,11730.48267641942
308,11730.482676419433
309,11730.48267641942
310,11730.48267641942
311,13401.761858876418
312,11730.48267641942
313,13401.761858876325
314,11730.48267641942
315,13401.761858876405
316,13401.761858876325
317,-416960.0292591194
318,-419845.8052832742
709,0.0
710,0.0
711,0.0
321,0.0
322,0.0
323,0.0
507,47.69472500675395
508,11.944983246183574
509,-72598.36429805704
510,-81069.48544937598
511,21.1111111111111
512,23.8888888888889
740,0.0
816,0.0
842,0.0
2,1, 7,21, 0, 4, 0.00,10.00,SummerDesignDay
243,0.0
253,0.0
257,0.0
258,0.0
259,0.0
712,0.0
713,0.0
714,0.0
11,4358208.032702822
2,1, 7,21, 0, 4,10.00,20.00,SummerDesignDay
243,0.0
253,0.0
257,0.0
258,0.0
259,0.0
712,0.0
713,0.0
714,0.0
11,4358208.032702822
2,1, 7,21, 0, 4,20.00,30.00,SummerDesignDay
243,0.0
253,0.0
257,0.0
258,0.0
259,0.0
712,0.0
713,0.0
714,0.0
11,4358208.032702822
2,1, 7,21, 0, 4,30.00,40.00,SummerDesignDay
243,0.0
253,0.0
257,0.0
258,0.0
259,0.0
712,0.0
713,0.0
714,0.0
11,4358208.032702822
2,1, 7,21, 0, 4,40.00,50.00,SummerDesignDay
243,0.0
253,0.0
257,0.0
258,0.0
259,0.0
712,0.0
713,0.0
714,0.0
11,4358208.032702822
2,1, 7,21, 0, 4,50.00,60.00,SummerDesignDay
243,0.0
253,0.0
257,0.0
258,0.0
259,0.0
712,0.0
713,0.0
714,0.0
11,4358208.032702822
2,1, 7,21, 0, 4, 0.00,60.00,SummerDesignDay
8,7.830749999999999
246,0.0
249,0.0
252,0.0
256,0.0
272,-331469.6820565469
273,-330943.54327834304
274,-331469.6820565513
275,-714196.8061611005
276,-132704.46288976065
277,-844814.1063853903
278,-331761.1572243989
279,-330756.15297664073
280,-291302.4689149942
281,-331469.68205654103
282,-290420.02714326256
283,-330943.5432783539
284,-330756.1529766432
285,-248315.95479055232
286,-247628.22774463226
287,-174219.09602149768
288,-174219.09602144157
289,-452969.6496568123
290,-1115002.2145382222
291,-174219.09602132544
292,-174219.09602122358
293,-174219.09602211183
294,-174219.09602168578
295,-1421222.2019234053
296,-1401458.432319429
297,14716.9930056753
298,12108.251192103951
299,14716.993005675284
300,12108.251192103939
301,12108.251192103951
302,38308.5091164072
303,31487.136624813924
304,12108.251192103951
305,12108.251192103951
306,94579.25884013675
307,12108.251192103939
308,12108.251192103951
309,12108.251192103939
310,12108.251192103939
311,14716.9930056753
312,12108.251192103939
313,14716.993005675284
314,12108.251192103939
315,14716.993005675284
316,14716.993005675284
317,-417199.9206192395
318,-420092.322170089
709,0.0
710,0.0
711,0.0
321,0.0
322,0.0
323,0.0
507,47.51259227219948
508,11.070595137974209
509,-72045.75934945105
510,-80517.21346414326
511,21.1111111111111
512,23.8888888888889
740,0.0
816,0.0
842,0.0
2,1, 7,21, 0, 5, 0.00,10.00,SummerDesignDay
243,0.0
253,0.0
257,0.0
258,0.0
259,0.0
712,0.0
713,0.0
714,0.0
11,4358208.032702822
2,1, 7,21, 0, 5,10.00,20.00,SummerDesignDay
243,0.0
253,0.0
257,0.0
258,0.0
259,0.0
712,0.0
713,0.0
714,0.0
11,4358208.032702822
2,1, 7,21, 0, 5,20.00,30.00,SummerDesignDay
243,0.0
253,0.0
257,0.0
258,0.0
259,0.0
712,0.0
713,0.0
714,0.0
11,4358208.032702822
2,1, 7,21, 0, 5,30.00,40.00,SummerDesignDay
243,0.0
253,0.0
257,0.0
258,0.0
259,0.0
712,0.0
713,0.0
714,0.0
11,4358208.032702822
2,1, 7,21, 0, 5,40.00,50.00,SummerDesignDay
243,0.0
253,0.0
257,0.0
258,0.0
259,0.0
712,0.0
713,0.0
714,0.0
11,4358208.032702822
2,1, 7,21, 0, 5,50.00,60.00,SummerDesignDay
243,0.0
253,0.0
257,0.0
258,0.0
259,0.0
712,0.0
713,0.0
714,0.0
11,4358208.032702822
2,1, 7,21, 0, 5, 0.00,60.00,SummerDesignDay
8,7.659166666666667
246,0.0
249,0.0
252,0.0
256,0.0
272,-328861.6452435032
273,-328264.92974771373
274,-328861.64524351276
275,-708591.7388968593
276,-131662.98884190185
277,-837976.2920335401
278,-329157.4721047613
279,-328079.5198068938
280,-289016.30637542374
281,-328861.64524350135
282,-288069.81266179023
283,-328264.92974772153
284,-328079.5198069037
285,-246325.83140906983
286,-245569.01096123166
287,-170457.303441624
288,-170457.30344180326
289,-443188.9889495842
290,-1090926.7420308997
291,-170457.3034418991
292,-170457.30344139363
293,-170457.30344214762
294,-170457.3034419126
295,-1418873.2584216688
296,-1398844.721184575
297,15520.322647919838
298,12320.119905695956
299,15520.322647919429
300,12320.119905695943
301,12320.119905695956
302,40384.226838329574
303,32036.18427668575
304,12320.119905695956
305,12320.119905695956
306,99605.99180937072
307,12320.119905695943
308,12320.119905695334
309,12320.11990569532
310,12320.119905695943
311,15520.322647919838
312,12320.119905695943
313,15520.322647919429
314,12320.119905695943
315,15520.322647919429
316,15520.322647919429
317,-416850.9816552057
318,-419740.51305493654
709,0.0
710,0.0
711,0.0
321,0.0
322,0.0
323,0.0
507,47.329301121818624
508,10.554774827073636
509,-71499.62424686285
510,-79972.60273409596
511,21.1111111111111
512,23.8888888888889
740,0.0
816,0.0
842,0.0
2,1, 7,21, 0, 6, 0.00,10.00,SummerDesignDay
243,0.0
253,0.0
257,0.0
258,0.0
259,0.0
712,0.0
713,0.0
714,0.0
11,4358208.032702822
2,1, 7,21, 0, 6,10.00,20.00,SummerDesignDay
243,0.0
253,0.0
257,0.0
258,0.0
259,0.0
712,0.0
713,0.0
714,0.0
11,4358208.032702822
2,1, 7,21, 0, 6,20.00,30.00,SummerDesignDay
243,0.0
253,0.0
257,0.0
258,0.0
259,0.0
712,0.0
713,0.0
714,0.0
11,4358208.032702822
2,1, 7,21, 0, 6,30.00,40.00,SummerDesignDay
243,0.0
253,0.0
257,0.0
258,0.0
259,0.0
712,0.0
713,0.0
714,0.0
11,4358208.032702822
2,1, 7,21, 0, 6,40.00,50.00,SummerDesignDay
243,0.0
253,0.0
257,0.0
258,0.0
259,0.0
712,0.0
713,0.0
714,0.0
11,4358208.032702822
2,1, 7,21, 0, 6,50.00,60.00,SummerDesignDay
243,0.0
253,0.0
257,0.0
258,0.0
259,0.0
712,0.0
713,0.0
714,0.0
11,4358208.032702822
2,1, 7,21, 0, 6, 0.00,60.00,SummerDesignDay
8,7.682833333333332
246,0.0
249,0.0
252,0.0
256,0.0
272,226728.22003592944
273,987596.6464208366
274,226728.22003592164
275,-487947.3693356174
276,-90665.19458080875
277,2521080.8285785974
278,-226662.98645202938
279,-233037.89219214057
280,-199021.19554788314
281,226728.2200359243
282,-204618.67134565007
283,987596.6464208333
284,-233037.89219214392
285,150405.908308775
286,-179832.84767585888
287,-182771.7436228419
288,-182771.7436227842
289,-475206.53342167084
290,-1169739.1591912631
291,-182771.74362325648
292,-182771.74362226092
293,-182771.74362314705
294,-182771.7436229335
295,-1392813.730322747
296,-810052.2191971672
297,5965.194238640066
298,-2888.2356858110434
299,5965.194238638872
300,-2888.23568581104
301,-2888.2356858110434
302,15420.037997248257
303,-7737.39203375393
304,-2888.2356858110434
305,-2888.2356858110434
306,37364.959263696364
307,-2888.23568581104
308,-2888.2356858110434
309,-2888.23568581104
310,-2888.23568581104
311,5965.194238640066
312,-2888.23568581104
313,5965.194238638872
314,-2888.23568581104
315,5965.194238638872
316,5965.194238638872
317,-393763.6568788725
318,-130851.79246425634
709,0.0
710,0.0
711,0.0
321,0.0
322,0.0
323,0.0
507,47.29942488274792
508,10.19706294702593
509,-71383.64133320499
510,-79853.67081090529
511,21.1111111111111
512,23.8888888888889
740,0.0
816,0.0
842,0.0
2,1, 7,21, 0, 7, 0.00,10.00,SummerDesignDay
243,0.0
253,0.0
257,0.0
258,0.0
259,0.0
712,0.0
713,0.0
714,0.0
11,4380861.509976422
2,1, 7,21, 0, 7,10.00,20.00,SummerDesignDay
243,0.0
253,0.0
257,0.0
258,0.0
259,0.0
712,0.0
713,0.0
714,0.0
11,4380861.509976422
2,1, 7,21, 0, 7,20.00,30.00,SummerDesignDay
243,0.0
253,0.0
257,0.0
258,0.0
259,0.0
712,0.0
713,0.0
714,0.0
11,4380861.509976422
2,1, 7,21, 0, 7,30.00,40.00,SummerDesignDay
243,0.0
253,0.0
257,0.0
258,0.0
259,0.0
712,0.0
713,0.0
714,0.0
11,4380861.509976422
2,1, 7,21, 0, 7,40.00,50.00,SummerDesignDay
243,0.0
253,0.0
257,0.0
258,0.0
259,0.0
712,0.0
713,0.0
714,0.0
11,4380861.509976422
2,1, 7,21, 0, 7,50.00,60.00,SummerDesignDay
243,0.0
253,0.0
257,0.0
258,0.0
259,0.0
712,0.0
713,0.0
714,0.0
11,4380861.509976422
2,1, 7,21, 0, 7, 0.00,60.00,SummerDesignDay
8,8.031916666666666
246,0.0
249,0.0
252,0.0
256,0.0
272,-139272.2526563373
273,521652.2656132998
274,-139272.25265634447
275,-358463.3341698909
276,-66605.84729107782
277,1331644.3895487965
278,-166514.61822769966
279,-175640.68748549186
280,-146207.98303446747
281,-139272.2526563554
282,-154221.11446638362
283,521652.2656132905
284,-175640.68748548912
285,-113088.72320507377
286,-138640.24648672307
287,-141721.0791407693
288,-141721.07914048104
289,-368474.80576809205
290,-907014.9065032393
291,-141721.0791408344
292,-141721.0791401044
293,-141721.07914072028
294,-141721.07914074932
295,-1029040.3375879236
296,-84543.68567517553
297,20073.586414152913
298,26401.587162523778
299,20073.5864141521
300,26401.58716252375
301,26401.587162523778
302,51950.975908362445
303,68582.3629105981
304,26401.587162523778
305,26401.587162523778
306,126290.87212291919
307,26401.58716252375
308,26401.587162523778
309,26401.58716252375
310,26401.58716252375
311,20073.586414152913
312,26401.58716252375
313,20073.5864141521
314,26401.58716252375
315,20073.5864141521
316,20073.5864141521
317,-363580.99739323335
318,2842.7998627608645
709,0.0
710,0.9999999999999999
711,0.0
321,19246211.742274027
322,0.0
323,0.11657106030663467
507,45.634122042476555
508,15.070784348765676
509,-94098.92171556118
510,-106056.94356403803
511,21.1111111111111
512,23.8888888888889
740,0.0
816,0.0
842,0.0
2,1, 7,21, 0, 8, 0.00,10.00,SummerDesignDay
243,0.0
253,0.0
257,0.0
258,0.0
259,0.0
712,0.0
713,0.0
714,0.0
11,4380861.509977406
2,1, 7,21, 0, 8,10.00,20.00,SummerDesignDay
243,0.0
253,0.0
257,0.0
258,0.0
259,0.0
712,0.0
713,0.0
714,0.0
11,4380861.509977406
2,1, 7,21, 0, 8,20.00,30.00,SummerDesignDay
243,0.0
253,0.0
257,0.0
258,0.0
259,0.0
712,0.0
713,0.0
714,0.0
11,4380861.509977406
2,1, 7,21, 0, 8,30.00,40.00,SummerDesignDay
243,0.0
253,0.0
257,0.0
258,0.0
259,0.0
712,0.0
713,0.0
714,0.0
11,4380861.509977406
2,1, 7,21, 0, 8,40.00,50.00,SummerDesignDay
243,0.0
253,0.0
257,0.0
258,0.0
259,0.0
712,0.0
713,0.0
714,0.0
11,4380861.509977406
2,1, 7,21, 0, 8,50.00,60.00,SummerDesignDay
243,0.0
253,0.0
257,0.0
258,0.0
259,0.0
712,0.0
713,0.0
714,0.0
11,4380861.509977406
2,1, 7,21, 0, 8, 0.00,60.00,SummerDesignDay
8,8.943083333333332
246,0.0
249,0.0
252,0.0
256,0.0
272,-329931.3831063806
273,176244.30364857172
274,-329931.3831063859
275,-296109.5258619303
276,-55019.92559425346
277,449906.4568093835
278,-137549.81398564202
279,-145942.49922407535
280,-120775.45904010034
281,-329931.38310639345
282,-128144.64472210809
283,176244.30364856505
284,-145942.4992240844
285,-245651.01887354007
286,-115726.39570432091
287,-103484.08262753791
288,-103484.08262718728
289,-269058.6148325892
290,-662298.1288154824
291,-103484.08262733692
292,-103484.0826270174
293,-103484.08262727308
294,-103484.08262753239
295,-511805.02557983645
296,148917.99533669004
297,26083.08019144809
298,22208.757556284243
299,26083.080191446963
300,22208.757556284218
301,22208.757556284243
302,67663.31095975044
303,57510.34163556252
304,22208.757556284243
305,22208.757556284243
306,165552.35717430196
307,22208.757556284218
308,22208.757556284243
309,22208.757556284218
310,22208.757556284218
311,26083.08019144809
312,22208.757556284218
313,26083.080191446963
314,22208.757556284218
315,26083.080191446963
316,26083.080191446963
317,-330795.1817637437
318,44536.76178402054
709,0.0
710,0.9999999999999999
711,0.0
321,18470795.851893283
322,0.0
323,0.11611475347413812
507,45.148686110235616
508,21.40797152673745
509,-58327.13131889425
510,-65948.05730011128
511,21.1111111111111
512,23.8888888888889
740,0.0
816,0.0
842,0.0
2,1, 7,21, 0, 9, 0.00,10.00,SummerDesignDay
243,0.0
253,0.0
257,0.0
258,0.0
259,0.0
712,0.0
713,0.0
714,0.0
11,5628514.132610766
2,1, 7,21, 0, 9,10.00,20.00,SummerDesignDay
243,0.0
253,0.0
257,0.0
258,0.0
259,0.0
712,0.0
713,0.0
714,0.0
11,4380861.509978425
2,1, 7,21, 0, 9,20.00,30.00,SummerDesignDay
243,0.0
253,0.0
257,0.0
258,0.0
259,0.0
712,0.0
713,0.0
714,0.0
11,4380861.509978425
2,1, 7,21, 0, 9,30.00,40.00,SummerDesignDay
243,0.0
253,0.0
257,0.0
258,0.0
259,0.0
712,0.0
713,0.0
714,0.0
11,4380861.509978425
2,1, 7,21, 0, 9,40.00,50.00,SummerDesignDay
243,0.0
253,0.0
257,0.0
258,0.0
259,0.0
712,0.0
713,0.0
714,0.0
11,5628538.279023287
2,1, 7,21, 0, 9,50.00,60.00,SummerDesignDay
243,0.0
253,0.0
257,0.0
258,0.0
259,0.0
712,0.0
713,0.0
714,0.0
11,4380861.509978425
2,1, 7,21, 0, 9, 0.00,60.00,SummerDesignDay
8,10.232916666666666
246,0.0
249,0.0
252,0.0
256,0.0
272,-247498.4176918745
273,-78714.51310118861
274,-247498.41769187193
275,-274443.50550869346
276,-50994.17596532006
277,-200938.02065052424
278,-127485.43991332003
279,1846.811090393896
280,-111938.44547371576
281,-247498.41769187
282,1621.4894353097952
283,-78714.51310120759
284,1846.8110903784727
285,-183908.01383104105
286,-11543.328145816668
287,-75548.34279779912
288,-75548.34279741149
289,-196425.69127495616
290,-483509.393902745
291,-75548.34279791276
292,-75548.34279761225
293,-75548.34279761233
294,-75548.34279787628
295,-141152.74152843235
296,250335.81931128714
297,16529.595884114315
298,7159.645280130444
299,16529.595884111684
300,7159.645280130436
301,7159.645280130444
302,42806.70010010331
303,18403.45084039301
304,7159.645280130444
305,7159.645280130444
306,104272.87992346492
307,7159.645280130436
308,7159.645280130444
309,7159.645280130436
310,7159.645280130436
311,16529.595884114315
312,7159.645280130436
313,16529.595884111684
314,7159.645280130436
315,16529.595884111684
316,16529.595884111684
317,-302073.32707814634
318,23966.262475188356
709,0.0
710,0.9999999999999999
711,0.0
321,17777609.408310615
322,0.0
323,0.11550771072925396
507,45.24048116475837
508,24.41921063453326
509,-60051.79627345432
510,-67864.24855536879
511,21.1111111111111
512,23.8888888888889
740,0.0
816,0.0
842,0.0
2,1, 7,21, 0,10, 0.00,10.00,SummerDesignDay
243,0.0
253,0.0
257,0.0
258,0.0
259,0.0
712,0.0
713,0.0
714,0.0
11,4380861.509978753
2,1, 7,21, 0,10,10.00,20.00,SummerDesignDay
243,0.0
253,0.0
257,0.0
258,0.0
259,0.0
712,0.0
713,0.0
714,0.0
11,4380861.509978753
2,1, 7,21, 0,10,20.00,30.00,SummerDesignDay
243,0.0
253,0.0
257,0.0
258,0.0
259,0.0
712,0.0
713,0.0
714,0.0
11,5628776.348004759