Program Version,EnergyPlus, Version 9.6.0-ec13cca9f6, YMD=2021.12.27 23:49
1,5,Environment Title[],Latitude[deg],Longitude[deg],Time Zone[],Elevation[m]
2,8,Day of Simulation[],Month[],Day of Month[],DST Indicator[1=yes 0=no],Hour[],StartMinute[],EndMinute[],DayType
3,5,Cumulative Day of Simulation[],Month[],Day of Month[],DST Indicator[1=yes 0=no],DayType  ! When Daily Meters Requested
4,2,Cumulative Days of Simulation[],Month[]  ! When Monthly Meters Requested
5,1,Cumulative Days of Simulation[] ! When Run Period Meters Requested
6,1,Calendar Year of Simulation[] ! When Annual Meters Requested
8,1,Electricity:Facility [J] !TimeStep
10,7,Electricity:Facility [J] !Daily [Value,Min,Hour,Minute,Max,Hour,Minute]
End of Data Dictionary
1,LONG BEACH DAUGHERTY FLD ANN CLG .4% CONDNS DB=>MWB 1 HVAC Sizing Pass 1,  33.83,-118.17,  -8.00,   8.00
2,1, 8,21, 0, 1, 0.00,60.00,SummerDesignDay
8,31180282.36845428
2,1, 8,21, 0, 2, 0.00,60.00,SummerDesignDay
8,28948149.28376121
2,1, 8,21, 0, 3, 0.00,60.00,SummerDesignDay
8,27832082.741343567
2,1, 8,21, 0, 4, 0.00,60.00,SummerDesignDay
8,27274049.47022323
2,1, 8,21, 0, 5, 0.00,60.00,SummerDesignDay
8,28359545.026544837
2,1, 8,21, 0, 6, 0.00,60.00,SummerDesignDay
8,30977123.072742534
