Program Version,EnergyPlus, Version 22.1.0-08bd19528a, YMD=2022.02.07 07:52
1,5,Environment Title[],Latitude[deg],Longitude[deg],Time Zone[],Elevation[m]
2,8,Day of Simulation[],Month[],Day of Month[],DST Indicator[1=yes 0=no],Hour[],StartMinute[],EndMinute[],DayType
3,5,Cumulative Day of Simulation[],Month[],Day of Month[],DST Indicator[1=yes 0=no],DayType  ! When Daily Meters Requested
4,2,Cumulative Days of Simulation[],Month[]  ! When Monthly Meters Requested
5,1,Cumulative Days of Simulation[] ! When Run Period Meters Requested
6,1,Calendar Year of Simulation[] ! When Annual Meters Requested
11,1,Electricity:Facility [J] !TimeStep
1098,1,CUSTOMCHARGEMETER [J] !TimeStep
1110,1,CUSTOMDISCHARGEMETER [J] !TimeStep
208,1,ElecStorageHeaterCharge:InteriorEquipment:Electricity [J] !Hourly
1122,1,METERDECREMENTWORKS [J] !TimeStep
13,7,Electricity:Facility [J] !Daily [Value,Min,Hour,Minute,Max,Hour,Minute]
End of Data Dictionary
1,SIZING PERIOD DESIGN DAY 1,  33.83,-118.17,  -8.00,   8.00
2,1, 7,21, 0, 1, 0.00,10.00,SummerDesignDay
11,4358208.032702822
1098,0.0
1110,0.0
1122,4358208.032702822
2,1, 7,21, 0, 1,10.00,20.00,SummerDesignDay
11,4358208.032702822
1098,0.0
1110,0.0
1122,4358208.032702822
2,1, 7,21, 0, 1,20.00,30.00,SummerDesignDay
11,4358208.032702822
1098,0.0
1110,0.0
1122,4358208.032702822
2,1, 7,21, 0, 1,30.00,40.00,SummerDesignDay
11,4358208.032702822
1098,0.0
1110,0.0
1122,4358208.032702822
2,1, 7,21, 0, 1,40.00,50.00,SummerDesignDay
11,4358208.032702822
1098,0.0
1110,0.0
1122,4358208.032702822
2,1, 7,21, 0, 1,50.00,60.00,SummerDesignDay
11,4358208.032702822
1098,0.0
1110,0.0
1122,4358208.032702822
2,1, 7,21, 0, 1, 0.00,60.00,SummerDesignDay
208,0.0
2,1, 7,21, 0, 2, 0.00,10.00,SummerDesignDay
11,4358208.032702822
1098,0.0
1110,0.0
1122,4358208.032702822
2,1, 7,21, 0, 2,10.00,20.00,SummerDesignDay
11,4358208.032702822
1098,0.0
1110,0.0
1122,4358208.032702822
2,1, 7,21, 0, 2,20.00,30.00,SummerDesignDay
11,4358208.032702822
1098,0.0
1110,0.0
1122,4358208.032702822
2,1, 7,21, 0, 2,30.00,40.00,SummerDesignDay
11,4358208.032702822
1098,0.0
1110,0.0
1122,4358208.032702822
2,1, 7,21, 0, 2,40.00,50.00,SummerDesignDay
11,4358208.032702822
1098,0.0
1110,0.0
1122,4358208.032702822
2,1, 7,21, 0, 2,50.00,60.00,SummerDesignDay
11,4358208.032702822
1098,0.0
1110,0.0
1122,4358208.032702822
2,1, 7,21, 0, 2, 0.00,60.00,SummerDesignDay
208,0.0
2,1, 7,21, 0, 3, 0.00,10.00,SummerDesignDay
11,4358208.032702822
1098,0.0
1110,0.0
1122,4358208.032702822
2,1, 7,21, 0, 3,10.00,20.00,SummerDesignDay
11,4358208.032702822
1098,0.0
1110,0.0
1122,4358208.032702822
2,1, 7,21, 0, 3,20.00,30.00,SummerDesignDay
11,4358208.032702822
1098,0.0
1110,0.0
1122,4358208.032702822
2,1, 7,21, 0, 3,30.00,40.00,SummerDesignDay
11,4358208.032702822
1098,0.0
1110,0.0
1122,4358208.032702822
2,1, 7,21, 0, 3,40.00,50.00,SummerDesignDay
11,4358208.032702822
1098,0.0
1110,0.0
1122,4358208.032702822
2,1, 7,21, 0, 3,50.00,60.00,SummerDesignDay
11,4358208.032702822
1098,0.0
1110,0.0
1122,4358208.032702822
2,1, 7,21, 0, 3, 0.00,60.00,SummerDesignDay
208,0.0
2,1, 7,21, 0, 4, 0.00,10.00,SummerDesignDay
11,4358208.032702822
1098,0.0
1110,0.0
1122,4358208.032702822
2,1, 7,21, 0, 4,10.00,20.00,SummerDesignDay
11,4358208.032702822
1098,0.0
1110,0.0
1122,4358208.032702822
2,1, 7,21, 0, 4,20.00,30.00,SummerDesignDay
11,4358208.032702822
1098,0.0
1110,0.0
1122,4358208.032702822
2,1, 7,21, 0, 4,30.00,40.00,SummerDesignDay
11,4358208.032702822
1098,0.0
1110,0.0
1122,4358208.032702822
2,1, 7,21, 0, 4,40.00,50.00,SummerDesignDay
11,4358208.032702822
1098,0.0
1110,0.0
1122,4358208.032702822
2,1, 7,21, 0, 4,50.00,60.00,SummerDesignDay
11,4358208.032702822
1098,0.0
1110,0.0
1122,4358208.032702822
2,1, 7,21, 0, 4, 0.00,60.00,SummerDesignDay
208,0.0
2,1, 7,21, 0, 5, 0.00,10.00,SummerDesignDay
11,4358208.032702822
1098,0.0
1110,0.0
1122,4358208.032702822
2,1, 7,21, 0, 5,10.00,20.00,SummerDesignDay
11,4358208.032702822
1098,0.0
1110,0.0
1122,4358208.032702822
2,1, 7,21, 0, 5,20.00,30.00,SummerDesignDay
11,4358208.032702822
1098,0.0
1110,0.0
1122,4358208.032702822
2,1, 7,21, 0, 5,30.00,40.00,SummerDesignDay
11,4358208.032702822
1098,0.0
1110,0.0
1122,4358208.032702822
2,1, 7,21, 0, 5,40.00,50.00,SummerDesignDay
11,4358208.032702822
1098,0.0
1110,0.0
1122,4358208.032702822
2,1, 7,21, 0, 5,50.00,60.00,SummerDesignDay
11,4358208.032702822
1098,0.0
1110,0.0
1122,4358208.032702822
2,1, 7,21, 0, 5, 0.00,60.00,SummerDesignDay
208,0.0
2,1, 7,21, 0, 6, 0.00,10.00,SummerDesignDay
11,4358208.032702822
1098,0.0
1110,0.0
1122,4358208.032702822
2,1, 7,21, 0, 6,10.00,20.00,SummerDesignDay
11,4358208.032702822
1098,0.0
1110,0.0
1122,4358208.032702822
2,1, 7,21, 0, 6,20.00,30.00,SummerDesignDay
11,4358208.032702822
1098,0.0
1110,0.0
1122,4358208.032702822
2,1, 7,21, 0, 6,30.00,40.00,SummerDesignDay
11,4358208.032702822
1098,0.0
1110,0.0
1122,4358208.032702822
2,1, 7,21, 0, 6,40.00,50.00,SummerDesignDay
11,4358208.032702822
1098,0.0
1110,0.0
1122,4358208.032702822
2,1, 7,21, 0, 6,50.00,60.00,SummerDesignDay
11,4358208.032702822
1098,0.0
1110,0.0
1122,4358208.032702822
2,1, 7,21, 0, 6, 0.00,60.00,SummerDesignDay
208,0.0
2,1, 7,21, 0, 7, 0.00,10.00,SummerDesignDay
11,4380861.509976422
1098,0.0
1110,0.0
1122,4380861.509976422
2,1, 7,21, 0, 7,10.00,20.00,SummerDesignDay
11,4380861.509976422
1098,0.0
1110,0.0
1122,4380861.509976422
2,1, 7,21, 0, 7,20.00,30.00,SummerDesignDay
11,4380861.509976422
1098,0.0
1110,0.0
1122,4380861.509976422
2,1, 7,21, 0, 7,30.00,40.00,SummerDesignDay
11,4380861.509976422
1098,0.0
1110,0.0
1122,4380861.509976422
2,1, 7,21, 0, 7,40.00,50.00,SummerDesignDay
11,4380861.509976422
1098,0.0
1110,0.0
1122,4380861.509976422
2,1, 7,21, 0, 7,50.00,60.00,SummerDesignDay
11,4380861.509976422
1098,0.0
1110,0.0
1122,4380861.509976422
2,1, 7,21, 0, 7, 0.00,60.00,SummerDesignDay
208,0.0
2,1, 7,21, 0, 8, 0.00,10.00,SummerDesignDay
11,4380861.509977406
1098,0.0
1110,0.0
1122,4380861.509977406
2,1, 7,21, 0, 8,10.00,20.00,SummerDesignDay
11,4380861.509977406
1098,0.0
1110,0.0
1122,4380861.509977406
2,1, 7,21, 0, 8,20.00,30.00,SummerDesignDay
11,4380861.509977406
1098,0.0
1110,0.0
1122,4380861.509977406
2,1, 7,21, 0, 8,30.00,40.00,SummerDesignDay
11,4380861.509977406
1098,0.0
1110,0.0
1122,4380861.509977406
2,1, 7,21, 0, 8,40.00,50.00,SummerDesignDay
11,4380861.509977406
1098,0.0
1110,0.0
1122,4380861.509977406
2,1, 7,21, 0, 8,50.00,60.00,SummerDesignDay
11,4380861.509977406
1098,0.0
1110,0.0
1122,4380861.509977406
2,1, 7,21, 0, 8, 0.00,60.00,SummerDesignDay
208,0.0
2,1, 7,21, 0, 9, 0.00,10.00,SummerDesignDay
11,5628514.132610766
1098,0.0
1110,0.0
1122,5628514.132610766
2,1, 7,21, 0, 9,10.00,20.00,SummerDesignDay
11,4380861.509978425
1098,0.0
1110,0.0
1122,4380861.509978425
2,1, 7,21, 0, 9,20.00,30.00,SummerDesignDay
11,4380861.509978425
1098,0.0
1110,0.0
1122,4380861.509978425
2,1, 7,21, 0, 9,30.00,40.00,SummerDesignDay
11,4380861.509978425
1098,0.0
1110,0.0
1122,4380861.509978425
2,1, 7,21, 0, 9,40.00,50.00,SummerDesignDay
11,5628538.279023287
1098,0.0
1110,0.0
1122,5628538.279023287
2,1, 7,21, 0, 9,50.00,60.00,SummerDesignDay
11,4380861.509978425
1098,0.0
1110,0.0
1122,4380861.509978425
2,1, 7,21, 0, 9, 0.00,60.00,SummerDesignDay
208,0.0
2,1, 7,21, 0,10, 0.00,10.00,SummerDesignDay
11,4380861.509978753
1098,0.0
1110,0.0
1122,4380861.509978753
2,1, 7,21, 0,10,10.00,20.00,SummerDesignDay
11,4380861.509978753
1098,0.0
1110,0.0
1122,4380861.509978753
2,1, 7,21, 0,10,20.00,30.00,SummerDesignDay
11,5628776.348004759
1098,0.0
1110,0.0
1122,5628776.348004759
2,1, 7,21, 0,10,30.00,40.00,SummerDesignDay
11,4380861.509978753
1098,0.0
1110,0.0
1122,4380861.509978753
2,1, 7,21, 0,10,40.00,50.00,SummerDesignDay
11,4380861.509978753
1098,0.0
1110,0.0
1122,4380861.509978753
2,1, 7,21, 0,10,50.00,60.00,SummerDesignDay
11,5628667.959825377
1098,0.0
1110,0.0
1122,5628667.959825377
2,1, 7,21, 0,10, 0.00,60.00,SummerDesignDay
208,0.0
2,1, 7,21, 0,11, 0.00,10.00,SummerDesignDay
11,4380861.509978753
1098,0.0
1110,0.0
1122,4380861.509978753
2,1, 7,21, 0,11,10.00,20.00,SummerDesignDay
11,4380861.509978753
1098,0.0
1110,0.0
1122,4380861.509978753
2,1, 7,21, 0,11,20.00,30.00,SummerDesignDay
11,4380861.509978753
1098,0.0
1110,0.0
1122,4380861.509978753
2,1, 7,21, 0,11,30.00,40.00,SummerDesignDay
11,5628861.2419605
1098,0.0
1110,0.0
1122,5628861.2419605
2,1, 7,21, 0,11,40.00,50.00,SummerDesignDay
11,4380861.509978753
1098,0.0
1110,0.0
1122,4380861.509978753
2,1, 7,21, 0,11,50.00,60.00,SummerDesignDay
11,4380861.509978753
1098,0.0
1110,0.0
1122,4380861.509978753
2,1, 7,21, 0,11, 0.00,60.00,SummerDesignDay
208,0.0
2,1, 7,21, 0,12, 0.00,10.00,SummerDesignDay
11,5629011.035050937
1098,0.0
1110,0.0
1122,5629011.035050937
2,1, 7,21, 0,12,10.00,20.00,SummerDesignDay
11,4380861.509979408
1098,0.0
1110,0.0
1122,4380861.509979408
2,1, 7,21, 0,12,20.00,30.00,SummerDesignDay
11,5628769.397387591
1098,0.0
1110,0.0
1122,5628769.397387591
2,1, 7,21, 0,12,30.00,40.00,SummerDesignDay
11,4380861.509979408
1098,0.0
1110,0.0
1122,4380861.509979408
2,1, 7,21, 0,12,40.00,50.00,SummerDesignDay
11,4380861.509979408
1098,0.0
1110,0.0
1122,4380861.509979408
2,1, 7,21, 0,12,50.00,60.00,SummerDesignDay
11,5628917.222750116
1098,0.0
1110,0.0
1122,5628917.222750116
2,1, 7,21, 0,12, 0.00,60.00,SummerDesignDay
208,0.0
2,1, 7,21, 0,13, 0.00,10.00,SummerDesignDay
11,4380861.509980062
1098,0.0
1110,0.0
1122,4380861.509980062
2,1, 7,21, 0,13,10.00,20.00,SummerDesignDay
11,5629018.853977393
1098,0.0
1110,0.0
1122,5629018.853977393
2,1, 7,21, 0,13,20.00,30.00,SummerDesignDay
11,4380861.509980062
1098,0.0
1110,0.0
1122,4380861.509980062
2,1, 7,21, 0,13,30.00,40.00,SummerDesignDay
11,5628947.618525518
1098,0.0
1110,0.0
1122,5628947.618525518
2,1, 7,21, 0,13,40.00,50.00,SummerDesignDay
11,4380861.509980062
1098,0.0
1110,0.0
1122,4380861.509980062
2,1, 7,21, 0,13,50.00,60.00,SummerDesignDay
11,4380861.509980062
1098,0.0
1110,0.0
1122,4380861.509980062
2,1, 7,21, 0,13, 0.00,60.00,SummerDesignDay
208,0.0
2,1, 7,21, 0,14, 0.00,10.00,SummerDesignDay
11,5629222.320923332
1098,0.0
1110,0.0
1122,5629222.320923332
2,1, 7,21, 0,14,10.00,20.00,SummerDesignDay
11,4380861.509979736
1098,0.0
1110,0.0
1122,4380861.509979736
2,1, 7,21, 0,14,20.00,30.00,SummerDesignDay
11,5629066.450409692
1098,0.0
1110,0.0
1122,5629066.450409692
2,1, 7,21, 0,14,30.00,40.00,SummerDesignDay
11,4380861.509979736
1098,0.0
1110,0.0
1122,4380861.509979736
2,1, 7,21, 0,14,40.00,50.00,SummerDesignDay
11,5628909.516748528
1098,0.0
1110,0.0
1122,5628909.516748528
2,1, 7,21, 0,14,50.00,60.00,SummerDesignDay
11,4380861.509979736
1098,0.0
1110,0.0
1122,4380861.509979736
2,1, 7,21, 0,14, 0.00,60.00,SummerDesignDay
208,0.0
2,1, 7,21, 0,15, 0.00,10.00,SummerDesignDay
11,4380861.509978425
1098,0.0
1110,0.0
1122,4380861.509978425
2,1, 7,21, 0,15,10.00,20.00,SummerDesignDay
11,4380861.509978425
1098,0.0
1110,0.0
1122,4380861.509978425
2,1, 7,21, 0,15,20.00,30.00,SummerDesignDay
11,5628755.262275719
1098,0.0
1110,0.0
1122,5628755.262275719
2,1, 7,21, 0,15,30.00,40.00,SummerDesignDay
11,4380861.509978425
1098,0.0
1110,0.0
1122,4380861.509978425
2,1, 7,21, 0,15,40.00,50.00,SummerDesignDay
11,4380861.509978425
1098,0.0
1110,0.0
1122,4380861.509978425
2,1, 7,21, 0,15,50.00,60.00,SummerDesignDay
11,5628517.474880035
1098,0.0
1110,0.0
1122,5628517.474880035
2,1, 7,21, 0,15, 0.00,60.00,SummerDesignDay
208,0.0
2,1, 7,21, 0,16, 0.00,10.00,SummerDesignDay
11,4380861.509978425
1098,0.0
1110,0.0
1122,4380861.509978425
2,1, 7,21, 0,16,10.00,20.00,SummerDesignDay
11,4380861.509978425
1098,0.0
1110,0.0
1122,4380861.509978425
2,1, 7,21, 0,16,20.00,30.00,SummerDesignDay
11,4380861.509978425
1098,0.0
1110,0.0
1122,4380861.509978425
2,1, 7,21, 0,16,30.00,40.00,SummerDesignDay
11,5628537.63742246
1098,0.0
1110,0.0
1122,5628537.63742246
2,1, 7,21, 0,16,40.00,50.00,SummerDesignDay
11,4380861.509978425
1098,0.0
1110,0.0
1122,4380861.509978425
2,1, 7,21, 0,16,50.00,60.00,SummerDesignDay
11,4380861.509978425
1098,0.0
1110,0.0
1122,4380861.509978425
2,1, 7,21, 0,16, 0.00,60.00,SummerDesignDay
208,0.0
2,1, 7,21, 0,17, 0.00,10.00,SummerDesignDay
11,4380861.50997908
1098,0.0
1110,0.0
1122,4380861.50997908
2,1, 7,21, 0,17,10.00,20.00,SummerDesignDay
11,5628900.520653554
1098,0.0
1110,0.0
1122,5628900.520653554
2,1, 7,21, 0,17,20.00,30.00,SummerDesignDay
11,4380861.50997908
1098,0.0
1110,0.0
1122,4380861.50997908
2,1, 7,21, 0,17,30.00,40.00,SummerDesignDay
11,4380861.50997908
1098,0.0
1110,0.0
1122,4380861.50997908
2,1, 7,21, 0,17,40.00,50.00,SummerDesignDay
11,5628916.452790399
1098,0.0
1110,0.0
1122,5628916.452790399
2,1, 7,21, 0,17,50.00,60.00,SummerDesignDay
11,4380861.50997908
1098,0.0
1110,0.0
1122,4380861.50997908
2,1, 7,21, 0,17, 0.00,60.00,SummerDesignDay
208,0.0
2,1, 7,21, 0,18, 0.00,10.00,SummerDesignDay
11,4380861.509977769
1098,0.0
1110,0.0
1122,4380861.509977769
2,1, 7,21, 0,18,10.00,20.00,SummerDesignDay
11,4380861.509977769
1098,0.0
1110,0.0
1122,4380861.509977769
2,1, 7,21, 0,18,20.00,30.00,SummerDesignDay
11,5628418.393234876
1098,0.0
1110,0.0
1122,5628418.393234876
2,1, 7,21, 0,18,30.00,40.00,SummerDesignDay
11,4380861.509977769
1098,0.0
1110,0.0
1122,4380861.509977769
2,1, 7,21, 0,18,40.00,50.00,SummerDesignDay
11,4380861.509977769
1098,0.0
1110,0.0
1122,4380861.509977769
2,1, 7,21, 0,18,50.00,60.00,SummerDesignDay
11,4380861.509977769
1098,0.0
1110,0.0
1122,4380861.509977769
2,1, 7,21, 0,18, 0.00,60.00,SummerDesignDay
208,0.0
2,1, 7,21, 0,19, 0.00,10.00,SummerDesignDay
11,4380861.509977769
1098,0.0
1110,0.0
1122,4380861.509977769
2,1, 7,21, 0,19,10.00,20.00,SummerDesignDay
11,4380861.509977769
1098,0.0
1110,0.0
1122,4380861.509977769
2,1, 7,21, 0,19,20.00,30.00,SummerDesignDay
11,5628442.560138857
1098,0.0
1110,0.0
1122,5628442.560138857
2,1, 7,21, 0,19,30.00,40.00,SummerDesignDay
11,4380861.509977769
1098,0.0
1110,0.0
1122,4380861.509977769
2,1, 7,21, 0,19,40.00,50.00,SummerDesignDay
11,4380861.509977769
1098,0.0
1110,0.0
1122,4380861.509977769
2,1, 7,21, 0,19,50.00,60.00,SummerDesignDay
11,4380861.509977769
1098,0.0
1110,0.0
1122,4380861.509977769
2,1, 7,21, 0,19, 0.00,60.00,SummerDesignDay
208,0.0
2,1, 7,21, 0,20, 0.00,10.00,SummerDesignDay
11,4380861.509977078
1098,0.0
1110,0.0
1122,4380861.509977078
2,1, 7,21, 0,20,10.00,20.00,SummerDesignDay
11,4380861.509977078
1098,0.0
1110,0.0
1122,4380861.509977078
2,1, 7,21, 0,20,20.00,30.00,SummerDesignDay
11,4380861.509977078
1098,0.0
1110,0.0
1122,4380861.509977078
2,1, 7,21, 0,20,30.00,40.00,SummerDesignDay
11,4380861.509977078
1098,0.0
1110,0.0
1122,4380861.509977078
2,1, 7,21, 0,20,40.00,50.00,SummerDesignDay
11,5628183.008935252
1098,0.0
1110,0.0
1122,5628183.008935252
2,1, 7,21, 0,20,50.00,60.00,SummerDesignDay
11,4380861.509977078
1098,0.0
1110,0.0
1122,4380861.509977078
2,1, 7,21, 0,20, 0.00,60.00,SummerDesignDay
208,0.0
2,1, 7,21, 0,21, 0.00,10.00,SummerDesignDay
11,4380861.509977406
1098,0.0
1110,0.0
1122,4380861.509977406
2,1, 7,21, 0,21,10.00,20.00,SummerDesignDay
11,4380861.509977406
1098,0.0
1110,0.0
1122,4380861.509977406
2,1, 7,21, 0,21,20.00,30.00,SummerDesignDay
11,4380861.509977406
1098,0.0
1110,0.0
1122,4380861.509977406
2,1, 7,21, 0,21,30.00,40.00,SummerDesignDay
11,4380861.509977406
1098,0.0
1110,0.0
1122,4380861.509977406
2,1, 7,21, 0,21,40.00,50.00,SummerDesignDay
11,4380861.509977406
1098,0.0
1110,0.0
1122,4380861.509977406
2,1, 7,21, 0,21,50.00,60.00,SummerDesignDay
11,4380861.509977406
1098,0.0
1110,0.0
1122,4380861.509977406
2,1, 7,21, 0,21, 0.00,60.00,SummerDesignDay
208,0.0
2,1, 7,21, 0,22, 0.00,10.00,SummerDesignDay
11,4358208.03270315
1098,0.0
1110,0.0
1122,4358208.03270315
2,1, 7,21, 0,22,10.00,20.00,SummerDesignDay
11,4358208.03270315
1098,0.0
1110,0.0
1122,4358208.03270315
2,1, 7,21, 0,22,20.00,30.00,SummerDesignDay
11,4358208.03270315
1098,0.0
1110,0.0
1122,4358208.03270315
2,1, 7,21, 0,22,30.00,40.00,SummerDesignDay
11,5605429.163657766
1098,0.0
1110,0.0
1122,5605429.163657766
2,1, 7,21, 0,22,40.00,50.00,SummerDesignDay
11,4358208.03270315
1098,0.0
1110,0.0
1122,4358208.03270315
2,1, 7,21, 0,22,50.00,60.00,SummerDesignDay
11,4358208.03270315
1098,0.0
1110,0.0
1122,4358208.03270315
2,1, 7,21, 0,22, 0.00,60.00,SummerDesignDay
208,0.0
2,1, 7,21, 0,23, 0.00,10.00,SummerDesignDay
11,4358208.032702822
1098,0.0
1110,0.0
1122,4358208.032702822
2,1, 7,21, 0,23,10.00,20.00,SummerDesignDay
11,4358208.032702822
1098,0.0
1110,0.0
1122,4358208.032702822
2,1, 7,21, 0,23,20.00,30.00,SummerDesignDay
11,4358208.032702822
1098,0.0
1110,0.0
1122,4358208.032702822
2,1, 7,21, 0,23,30.00,40.00,SummerDesignDay
11,4358208.032702822
1098,0.0
1110,0.0
1122,4358208.032702822
2,1, 7,21, 0,23,40.00,50.00,SummerDesignDay
11,4358208.032702822
1098,0.0
1110,0.0
1122,4358208.032702822
2,1, 7,21, 0,23,50.00,60.00,SummerDesignDay
11,4358208.032702822
1098,0.0
1110,0.0
1122,4358208.032702822
2,1, 7,21, 0,23, 0.00,60.00,SummerDesignDay
208,0.0
2,1, 7,21, 0,24, 0.00,10.00,SummerDesignDay
11,4358208.032702822
1098,0.0
1110,0.0
1122,4358208.032702822
2,1, 7,21, 0,24,10.00,20.00,SummerDesignDay
11,4358208.032702822
1098,0.0
1110,0.0
1122,4358208.032702822
2,1, 7,21, 0,24,20.00,30.00,SummerDesignDay
11,4358208.032702822
1098,0.0
1110,0.0
1122,4358208.032702822
2,1, 7,21, 0,24,30.00,40.00,SummerDesignDay
11,4358208.032702822
1098,0.0
1110,0.0
1122,4358208.032702822
2,1, 7,21, 0,24,40.00,50.00,SummerDesignDay
11,4358208.032702822
1098,0.0
1110,0.0
1122,4358208.032702822
2,1, 7,21, 0,24,50.00,60.00,SummerDesignDay
11,4358208.032702822
1098,0.0
1110,0.0
1122,4358208.032702822
2,1, 7,21, 0,24, 0.00,60.00,SummerDesignDay
208,0.0
3,1, 7,21, 0,SummerDesignDay
13,657073790.7729306,4358208.032702822, 1,10,5629222.320923332,14,10
1,SIZING PERIOD DESIGN DAY 2,  33.83,-118.17,  -8.00,   8.00
2,1, 3,21, 0, 1, 0.00,10.00,WinterDesignDay
11,341064.0249641626
1098,0.0
1110,0.0
1122,341064.0249641626
2,1, 3,21, 0, 1,10.00,20.00,WinterDesignDay
11,341064.0249641626
1098,0.0
1110,0.0
1122,341064.0249641626
2,1, 3,21, 0, 1,20.00,30.00,WinterDesignDay
11,341064.0249641626
1098,0.0
1110,0.0
1122,341064.0249641626
2,1, 3,21, 0, 1,30.00,40.00,WinterDesignDay
11,341064.0249641626
1098,0.0
1110,0.0
1122,341064.0249641626
2,1, 3,21, 0, 1,40.00,50.00,WinterDesignDay
11,341064.0249641626
1098,0.0
1110,0.0
1122,341064.0249641626
2,1, 3,21, 0, 1,50.00,60.00,WinterDesignDay
11,341064.0249641626
1098,0.0
1110,0.0
1122,341064.0249641626
2,1, 3,21, 0, 1, 0.00,60.00,WinterDesignDay
208,0.0
2,1, 3,21, 0, 2, 0.00,10.00,WinterDesignDay
11,341064.0249641626
1098,0.0
1110,0.0
1122,341064.0249641626
2,1, 3,21, 0, 2,10.00,20.00,WinterDesignDay
11,341064.0249641626
1098,0.0
1110,0.0
1122,341064.0249641626
2,1, 3,21, 0, 2,20.00,30.00,WinterDesignDay
11,341064.0249641626
1098,0.0
1110,0.0
1122,341064.0249641626
2,1, 3,21, 0, 2,30.00,40.00,WinterDesignDay
11,341064.0249641626
1098,0.0
1110,0.0
1122,341064.0249641626
2,1, 3,21, 0, 2,40.00,50.00,WinterDesignDay
11,341064.0249641626
1098,0.0
1110,0.0
1122,341064.0249641626
2,1, 3,21, 0, 2,50.00,60.00,WinterDesignDay
11,341064.0249641626
1098,0.0
1110,0.0
1122,341064.0249641626
2,1, 3,21, 0, 2, 0.00,60.00,WinterDesignDay
208,0.0
2,1, 3,21, 0, 3, 0.00,10.00,WinterDesignDay
11,341064.0249641626
1098,0.0
1110,0.0
1122,341064.0249641626
2,1, 3,21, 0, 3,10.00,20.00,WinterDesignDay
11,341064.0249641626
1098,0.0
1110,0.0
1122,341064.0249641626
2,1, 3,21, 0, 3,20.00,30.00,WinterDesignDay
11,341064.0249641626
1098,0.0
1110,0.0
1122,341064.0249641626
2,1, 3,21, 0, 3,30.00,40.00,WinterDesignDay
11,341064.0249641626
1098,0.0
1110,0.0
1122,341064.0249641626
2,1, 3,21, 0, 3,40.00,50.00,WinterDesignDay
11,341064.0249641626
1098,0.0
1110,0.0
1122,341064.0249641626
2,1, 3,21, 0, 3,50.00,60.00,WinterDesignDay
11,341064.0249641626
1098,0.0
1110,0.0
1122,341064.0249641626
2,1, 3,21, 0, 3, 0.00,60.00,WinterDesignDay
208,0.0
2,1, 3,21, 0, 4, 0.00,10.00,WinterDesignDay
11,341064.0249641626
1098,0.0
1110,0.0
1122,341064.0249641626
2,1, 3,21, 0, 4,10.00,20.00,WinterDesignDay
11,341064.0249641626
1098,0.0
1110,0.0
1122,341064.0249641626
2,1, 3,21, 0, 4,20.00,30.00,WinterDesignDay
11,341064.0249641626
1098,0.0
1110,0.0
1122,341064.0249641626
2,1, 3,21, 0, 4,30.00,40.00,WinterDesignDay
11,341064.0249641626
1098,0.0
1110,0.0
1122,341064.0249641626
2,1, 3,21, 0, 4,40.00,50.00,WinterDesignDay
11,341064.0249641626
1098,0.0
1110,0.0
1122,341064.0249641626
2,1, 3,21, 0, 4,50.00,60.00,WinterDesignDay
11,341064.0249641626
1098,0.0
1110,0.0
1122,341064.0249641626
2,1, 3,21, 0, 4, 0.00,60.00,WinterDesignDay
208,0.0
2,1, 3,21, 0, 5, 0.00,10.00,WinterDesignDay
11,341064.0249641626
1098,0.0
1110,0.0
1122,341064.0249641626
2,1, 3,21, 0, 5,10.00,20.00,WinterDesignDay
11,341064.0249641626
1098,0.0
1110,0.0
1122,341064.0249641626
2,1, 3,21, 0, 5,20.00,30.00,WinterDesignDay
11,341064.0249641626
1098,0.0
1110,0.0
1122,341064.0249641626
2,1, 3,21, 0, 5,30.00,40.00,WinterDesignDay
11,341064.0249641626
1098,0.0
1110,0.0
1122,341064.0249641626
2,1, 3,21, 0, 5,40.00,50.00,WinterDesignDay
11,341064.0249641626
1098,0.0
1110,0.0
1122,341064.0249641626
2,1, 3,21, 0, 5,50.00,60.00,WinterDesignDay
11,341064.0249641626
1098,0.0
1110,0.0
1122,341064.0249641626
2,1, 3,21, 0, 5, 0.00,60.00,WinterDesignDay
208,0.0
2,1, 3,21, 0, 6, 0.00,10.00,WinterDesignDay
11,341064.0249641626
1098,0.0
1110,0.0
1122,341064.0249641626
2,1, 3,21, 0, 6,10.00,20.00,WinterDesignDay
11,341064.0249641626
1098,0.0
1110,0.0
1122,341064.0249641626
2,1, 3,21, 0, 6,20.00,30.00,WinterDesignDay
11,341064.0249641626
1098,0.0
1110,0.0
1122,341064.0249641626
2,1, 3,21, 0, 6,30.00,40.00,WinterDesignDay
11,341064.0249641626
1098,0.0
1110,0.0
1122,341064.0249641626
2,1, 3,21, 0, 6,40.00,50.00,WinterDesignDay
11,341064.0249641626
1098,0.0
1110,0.0
1122,341064.0249641626
2,1, 3,21, 0, 6,50.00,60.00,WinterDesignDay
11,341064.0249641626
1098,0.0
1110,0.0
1122,341064.0249641626
2,1, 3,21, 0, 6, 0.00,60.00,WinterDesignDay
208,0.0
2,1, 3,21, 0, 7, 0.00,10.00,WinterDesignDay
11,363717.5022377626
1098,0.0
1110,0.0
1122,363717.5022377626
2,1, 3,21, 0, 7,10.00,20.00,WinterDesignDay
11,363717.5022377626
1098,0.0
1110,0.0
1122,363717.5022377626
2,1, 3,21, 0, 7,20.00,30.00,WinterDesignDay
11,363717.5022377626
1098,0.0
1110,0.0
1122,363717.5022377626
2,1, 3,21, 0, 7,30.00,40.00,WinterDesignDay
11,363717.5022377626
1098,0.0
1110,0.0
1122,363717.5022377626
2,1, 3,21, 0, 7,40.00,50.00,WinterDesignDay
11,363717.5022377626
1098,0.0
1110,0.0
1122,363717.5022377626
2,1, 3,21, 0, 7,50.00,60.00,WinterDesignDay
11,363717.5022377626
1098,0.0
1110,0.0
1122,363717.5022377626
2,1, 3,21, 0, 7, 0.00,60.00,WinterDesignDay
208,0.0
2,1, 3,21, 0, 8, 0.00,10.00,WinterDesignDay
11,363717.5022387457
1098,0.0
1110,0.0
1122,363717.5022387457
2,1, 3,21, 0, 8,10.00,20.00,WinterDesignDay
11,363717.5022387457
1098,0.0
1110,0.0
1122,363717.5022387457
2,1, 3,21, 0, 8,20.00,30.00,WinterDesignDay
11,363717.5022387457
1098,0.0
1110,0.0
1122,363717.5022387457
2,1, 3,21, 0, 8,30.00,40.00,WinterDesignDay
11,1611156.4891882038
1098,0.0
1110,0.0
1122,1611156.4891882038
2,1, 3,21, 0, 8,40.00,50.00,WinterDesignDay
11,363717.5022387457
1098,0.0
1110,0.0
1122,363717.5022387457
2,1, 3,21, 0, 8,50.00,60.00,WinterDesignDay
11,363717.5022387457
1098,0.0
1110,0.0
1122,363717.5022387457
2,1, 3,21, 0, 8, 0.00,60.00,WinterDesignDay
208,0.0
2,1, 3,21, 0, 9, 0.00,10.00,WinterDesignDay
11,363717.50223976513
1098,0.0
1110,0.0
1122,363717.50223976513
2,1, 3,21, 0, 9,10.00,20.00,WinterDesignDay
11,363717.50223976513
1098,0.0
1110,0.0
1122,363717.50223976513
2,1, 3,21, 0, 9,20.00,30.00,WinterDesignDay
11,1611506.3292388734
1098,0.0
1110,0.0
1122,1611506.3292388734
2,1, 3,21, 0, 9,30.00,40.00,WinterDesignDay
11,363717.50223976513
1098,0.0
1110,0.0
1122,363717.50223976513
2,1, 3,21, 0, 9,40.00,50.00,WinterDesignDay
11,363717.50223976513
1098,0.0
1110,0.0
1122,363717.50223976513
2,1, 3,21, 0, 9,50.00,60.00,WinterDesignDay
11,363717.50223976513
1098,0.0
1110,0.0
1122,363717.50223976513
2,1, 3,21, 0, 9, 0.00,60.00,WinterDesignDay
208,0.0
2,1, 3,21, 0,10, 0.00,10.00,WinterDesignDay
11,1611708.824845603
1098,0.0
1110,0.0
1122,1611708.824845603
2,1, 3,21, 0,10,10.00,20.00,WinterDesignDay
11,363717.5022400928
1098,0.0
1110,0.0
1122,363717.5022400928
2,1, 3,21, 0,10,20.00,30.00,WinterDesignDay
11,363717.5022400928
1098,0.0
1110,0.0
1122,363717.5022400928
2,1, 3,21, 0,10,30.00,40.00,WinterDesignDay
11,1611638.1098234511
1098,0.0
1110,0.0
1122,1611638.1098234511
2,1, 3,21, 0,10,40.00,50.00,WinterDesignDay
11,363717.5022400928
1098,0.0
1110,0.0
1122,363717.5022400928
2,1, 3,21, 0,10,50.00,60.00,WinterDesignDay
11,363717.5022400928
1098,0.0
1110,0.0
1122,363717.5022400928
2,1, 3,21, 0,10, 0.00,60.00,WinterDesignDay
208,0.0
2,1, 3,21, 0,11, 0.00,10.00,WinterDesignDay
11,1611567.2532466208
1098,0.0
1110,0.0
1122,1611567.2532466208
2,1, 3,21, 0,11,10.00,20.00,WinterDesignDay
11,363717.5022400928
1098,0.0
1110,0.0
1122,363717.5022400928
2,1, 3,21, 0,11,20.00,30.00,WinterDesignDay
11,363717.5022400928
1098,0.0
1110,0.0
1122,363717.5022400928
2,1, 3,21, 0,11,30.00,40.00,WinterDesignDay
11,1611496.2410402156
1098,0.0
1110,0.0
1122,1611496.2410402156
2,1, 3,21, 0,11,40.00,50.00,WinterDesignDay
11,363717.5022400928
1098,0.0
1110,0.0
1122,363717.5022400928
2,1, 3,21, 0,11,50.00,60.00,WinterDesignDay
11,363717.5022400928
1098,0.0
1110,0.0
1122,363717.5022400928
2,1, 3,21, 0,11, 0.00,60.00,WinterDesignDay
208,0.0
2,1, 3,21, 0,12, 0.00,10.00,WinterDesignDay
11,1611683.2293382508
1098,0.0
1110,0.0
1122,1611683.2293382508
2,1, 3,21, 0,12,10.00,20.00,WinterDesignDay
11,363717.50224074814
1098,0.0
1110,0.0
1122,363717.50224074814
2,1, 3,21, 0,12,20.00,30.00,WinterDesignDay
11,363717.50224074814
1098,0.0
1110,0.0
1122,363717.50224074814
2,1, 3,21, 0,12,30.00,40.00,WinterDesignDay
11,1611869.0582576813
1098,0.0
1110,0.0
1122,1611869.0582576813
2,1, 3,21, 0,12,40.00,50.00,WinterDesignDay
11,363717.50224074814
1098,0.0
1110,0.0
1122,363717.50224074814
2,1, 3,21, 0,12,50.00,60.00,WinterDesignDay
11,1611652.5651002245
1098,0.0
1110,0.0
1122,1611652.5651002245
2,1, 3,21, 0,12, 0.00,60.00,WinterDesignDay
208,0.0
2,1, 3,21, 0,13, 0.00,10.00,WinterDesignDay
11,363717.50224140246
1098,0.0
1110,0.0
1122,363717.50224140246
2,1, 3,21, 0,13,10.00,20.00,WinterDesignDay
11,363717.50224140246
1098,0.0
1110,0.0
1122,363717.50224140246
2,1, 3,21, 0,13,20.00,30.00,WinterDesignDay
11,1612267.0193031612
1098,0.0
1110,0.0
1122,1612267.0193031612
2,1, 3,21, 0,13,30.00,40.00,WinterDesignDay
11,363717.50224140246
1098,0.0
1110,0.0
1122,363717.50224140246
2,1, 3,21, 0,13,40.00,50.00,WinterDesignDay
11,1612221.903629501
1098,0.0
1110,0.0
1122,1612221.903629501
2,1, 3,21, 0,13,50.00,60.00,WinterDesignDay
11,363717.50224140246
1098,0.0
1110,0.0
1122,363717.50224140246
2,1, 3,21, 0,13, 0.00,60.00,WinterDesignDay
208,0.0
2,1, 3,21, 0,14, 0.00,10.00,WinterDesignDay
11,1612047.7476939259
1098,0.0
1110,0.0
1122,1612047.7476939259
2,1, 3,21, 0,14,10.00,20.00,WinterDesignDay
11,363717.50224107585
1098,0.0
1110,0.0
1122,363717.50224107585
2,1, 3,21, 0,14,20.00,30.00,WinterDesignDay
11,1611917.3027579281
1098,0.0
1110,0.0
1122,1611917.3027579281
2,1, 3,21, 0,14,30.00,40.00,WinterDesignDay
11,363717.50224107585
1098,0.0
1110,0.0
1122,363717.50224107585
2,1, 3,21, 0,14,40.00,50.00,WinterDesignDay
11,1611786.2595217654
1098,0.0
1110,0.0
1122,1611786.2595217654
2,1, 3,21, 0,14,50.00,60.00,WinterDesignDay
11,363717.50224107585
1098,0.0
1110,0.0
1122,363717.50224107585
2,1, 3,21, 0,14, 0.00,60.00,WinterDesignDay
208,0.0
2,1, 3,21, 0,15, 0.00,10.00,WinterDesignDay
11,363717.50223976513
1098,0.0
1110,0.0
1122,363717.50223976513
2,1, 3,21, 0,15,10.00,20.00,WinterDesignDay
11,1611413.09182932
1098,0.0
1110,0.0
1122,1611413.09182932
2,1, 3,21, 0,15,20.00,30.00,WinterDesignDay
11,363717.50223976513
1098,0.0
1110,0.0
1122,363717.50223976513
2,1, 3,21, 0,15,30.00,40.00,WinterDesignDay
11,363717.50223976513
1098,0.0
1110,0.0
1122,363717.50223976513
2,1, 3,21, 0,15,40.00,50.00,WinterDesignDay
11,363717.50223976513
1098,0.0
1110,0.0
1122,363717.50223976513
2,1, 3,21, 0,15,50.00,60.00,WinterDesignDay
11,1611486.9265274724
1098,0.0
1110,0.0
1122,1611486.9265274724
2,1, 3,21, 0,15, 0.00,60.00,WinterDesignDay
208,0.0
2,1, 3,21, 0,16, 0.00,10.00,WinterDesignDay
11,363717.50223976513
1098,0.0
1110,0.0
1122,363717.50223976513
2,1, 3,21, 0,16,10.00,20.00,WinterDesignDay
11,363717.50223976513
1098,0.0
1110,0.0
1122,363717.50223976513
2,1, 3,21, 0,16,20.00,30.00,WinterDesignDay
11,363717.50223976513
1098,0.0
1110,0.0
1122,363717.50223976513
2,1, 3,21, 0,16,30.00,40.00,WinterDesignDay
11,1611560.4505276217
1098,0.0
1110,0.0
1122,1611560.4505276217
2,1, 3,21, 0,16,40.00,50.00,WinterDesignDay
11,363717.50223976513
1098,0.0
1110,0.0
1122,363717.50223976513
2,1, 3,21, 0,16,50.00,60.00,WinterDesignDay
11,363717.50223976513
1098,0.0
1110,0.0
1122,363717.50223976513
2,1, 3,21, 0,16, 0.00,60.00,WinterDesignDay
208,0.0
2,1, 3,21, 0,17, 0.00,10.00,WinterDesignDay
11,1611619.6939467369
1098,0.0
1110,0.0
1122,1611619.6939467369
2,1, 3,21, 0,17,10.00,20.00,WinterDesignDay
11,363717.5022404205
1098,0.0
1110,0.0
1122,363717.5022404205
2,1, 3,21, 0,17,20.00,30.00,WinterDesignDay
11,363717.5022404205
1098,0.0
1110,0.0
1122,363717.5022404205
2,1, 3,21, 0,17,30.00,40.00,WinterDesignDay
11,1611677.0681155266
1098,0.0
1110,0.0
1122,1611677.0681155266
2,1, 3,21, 0,17,40.00,50.00,WinterDesignDay
11,363717.5022404205
1098,0.0
1110,0.0
1122,363717.5022404205
2,1, 3,21, 0,17,50.00,60.00,WinterDesignDay
11,363717.5022404205
1098,0.0
1110,0.0
1122,363717.5022404205
2,1, 3,21, 0,17, 0.00,60.00,WinterDesignDay
208,0.0
2,1, 3,21, 0,18, 0.00,10.00,WinterDesignDay
11,1611218.1155062788
1098,0.0
1110,0.0
1122,1611218.1155062788
2,1, 3,21, 0,18,10.00,20.00,WinterDesignDay
11,363717.5022391098
1098,0.0
1110,0.0
1122,363717.5022391098
2,1, 3,21, 0,18,20.00,30.00,WinterDesignDay
11,363717.5022391098
1098,0.0
1110,0.0
1122,363717.5022391098
2,1, 3,21, 0,18,30.00,40.00,WinterDesignDay
11,363717.5022391098
1098,0.0
1110,0.0
1122,363717.5022391098
2,1, 3,21, 0,18,40.00,50.00,WinterDesignDay
11,363717.5022391098
1098,0.0
1110,0.0
1122,363717.5022391098
2,1, 3,21, 0,18,50.00,60.00,WinterDesignDay